LAMMPS data file via write_data, version 23 Jun 2022, timestep = 200000

256 atoms
2 atom types
192 bonds
2 bond types
128 angles
1 angle types
64 dihedrals
1 dihedral types

-0.8606946799132675 12.860694679912843 xlo xhi
-0.8606946799132675 12.860694679912843 ylo yhi
-0.8606946799132675 12.860694679912843 zlo zhi

Masses

1 15.999 # O
2 2 # H

Pair Coeffs # lj/cut/coul/long

1 0.17 3.12
2 0 0

Bond Coeffs # harmonic

1 542.59 1.28
2 553 0.945

Angle Coeffs # harmonic

1 46.65 110.93

Dihedral Coeffs # opls

1 8 -5 0 0

Atoms # full

54 14 1 -0.428 0.7659596484053135 3.7943845767780964 3.307096785806648 0 1 0
71 18 2 0.428 1.3860785778072966 0.6771856017398936 2.460396686259762 0 0 0
11 3 2 0.428 2.8241965602304786 1.79264866541908 0.8841431869030518 0 0 0
9 3 1 -0.428 3.1589661848226163 1.8850005178808873 1.7681639869134576 0 0 0
56 14 2 0.428 0.9806440925704354 4.273116440366366 2.4283703108191546 0 1 0
12 3 2 0.428 4.128113088740468 0.29287489975482317 2.4849518766962495 0 0 0
10 3 1 -0.428 3.2274902517099484 0.7957082983901118 2.4057706636755385 0 0 0
45 12 1 -0.428 3.5416595093123595 4.864276678943303 2.8264013214836177 1 0 0
47 12 2 0.428 3.669429595722164 4.397741288771063 3.5821105331986587 1 0 0
70 18 1 -0.428 0.003135981795862053 0.4842892465508739 3.6465130837469655 0 0 0
233 59 1 -0.428 0.32655722948777366 4.595742421845056 0.15095712410621132 0 0 1
79 20 2 0.428 1.1707132877866613 2.8539389417864522 5.036330765785952 1 0 0
69 18 1 -0.428 0.5040370441479736 0.5286968527137219 2.4942492712811477 0 0 0
218 55 1 -0.428 3.77377410795998 4.873824314131885 0.014491771198508863 0 0 1
83 21 2 0.428 4.54186670861299 2.11411367417622 4.934716587576675 0 0 0
46 12 1 -0.428 4.3488369084296234 5.883070934508393 2.7859675648020352 1 0 0
189 48 1 -0.428 4.524561467838079 0.14936877222905665 5.341989172181972 1 1 0
220 55 2 0.428 3.8309929053447798 5.02602503549798 0.9288014349856737 0 0 1
81 21 1 -0.428 4.451812587316047 2.965712338550405 4.636057277676079 0 0 0
82 21 1 -0.428 4.913799807238371 3.7992697438590968 5.4878146583857035 0 0 0
234 59 1 -0.428 1.006942275355857 5.192228396228262 1.0765795215628078 0 0 1
128 32 2 0.428 0.570462809728054 5.628667655248649 4.295648240061404 1 0 0
77 20 1 -0.428 1.6732256500107079 2.590927625833726 5.87853193556094 1 0 0
235 59 2 0.428 0.7344848299286038 3.916753953348647 -0.27152470994979294 0 0 1
84 21 2 0.428 4.264425517588655 4.248915380239647 5.924717732850057 0 0 0
40 10 2 0.428 1.7452544023920602 -0.39185940842909495 -0.4465795698100862 0 1 0
6 2 1 -0.428 5.663261473282457 -0.5578242982905225 2.656990880626629 0 0 0
191 48 2 0.428 4.3773593286300425 -0.7335181583943522 5.132671138799191 1 1 0
80 20 2 0.428 2.638653440609885 0.9579642553063275 5.895669016254158 1 0 0
53 14 1 -0.428 -0.4957260729004853 3.846644470684078 3.5736750292833115 0 1 0
217 55 1 -0.428 4.534419475062906 5.620429345769402 -0.730852506859867 0 0 1
174 44 1 -0.428 1.2404591473678002 2.0669586688228234 -0.827678474168837 1 1 1
78 20 1 -0.428 1.7729473810446303 1.3825296394284008 6.0456409896197485 1 0 0
219 55 2 0.428 5.251954252517397 5.094418381611823 12.577141064180703 0 0 0
28 7 2 0.428 5.817433372352871 4.090118757639557 2.6518708853600157 0 0 0
55 14 2 0.428 12.859689447420584 2.99409930476647 3.345846824031095 -1 1 0
16 4 2 0.428 12.412646309249453 1.213946821380889 2.0057028754632014 0 0 0
26 7 1 -0.428 6.673181516984376 4.1835206570338075 2.21885959817919 0 0 0
25 7 1 -0.428 7.012939120614703 3.087941830189221 1.6212237111429562 0 0 0
24 6 2 0.428 11.145017048716191 3.065632186069286 0.32940240564400725 0 0 0
32 8 2 0.428 6.808859146524441 4.481215545071926 5.570259319546555 0 0 0
27 7 2 0.428 6.7755014177429835 3.020224217193091 0.6674481382806816 0 0 0
14 4 1 -0.428 11.671404978792552 1.5423307606823697 1.5795691220154455 0 0 0
15 4 2 0.428 9.976808187835461 1.4508853037339766 2.3346864303460024 0 0 0
13 4 1 -0.428 10.78809627200942 2.0108317931738773 2.3561285189176777 0 0 0
115 29 2 0.428 9.181442214462319 0.029038645527706963 3.8530996855223023 -1 1 0
113 29 1 -0.428 8.439692994918554 0.2969084112723226 3.2585062362825177 -1 1 0
114 29 1 -0.428 7.690577759866127 1.2468489423358635 3.7139964034809845 -1 1 0
116 29 2 0.428 7.683076100782243 1.9725819025119167 3.1145990699890658 -1 1 0
29 8 1 -0.428 8.557472683157934 4.045628231332265 4.937122464321813 0 0 0
31 8 2 0.428 9.064801458827954 4.788280333794644 4.543687850072667 0 0 0
143 36 2 0.428 11.195013231753533 0.40366822497632016 5.101779702416282 0 0 0
141 36 1 -0.428 10.888916046950165 -0.1853881896554207 4.474577989453664 0 0 0
22 6 1 -0.428 11.101860342695618 3.5227669696730572 -0.43732042166633256 0 0 0
8 2 2 0.428 6.527596583219516 -0.14191247084641012 2.900792841307279 0 0 0
142 36 1 -0.428 10.16862475834392 12.600032997586085 5.039339715008546 0 -1 0
21 6 1 -0.428 9.955798983499657 4.035159689430574 -0.7024459899430529 0 0 0
30 8 1 -0.428 7.74032581131568 4.424482500211886 5.827764769784239 0 0 0
170 43 1 -0.428 9.844481117073343 5.987865229352147 3.212691741355621 0 0 0
103 26 2 0.428 8.22906941687537 12.760305855936307 1.7537343479790084 0 0 0
104 26 2 0.428 8.906979605435511 12.660280361165794 -0.7174008279490306 0 0 0
23 6 2 0.428 9.90714319123409 5.01237730182916 -0.7192164705016335 0 0 0
194 49 1 -0.428 6.4844772438072065 2.88685069918452 12.597902131465162 -1 0 0
72 18 2 0.428 0.09931434648507598 -0.4302906199513319 3.9997195759205635 0 0 0
38 10 1 -0.428 2.069600857505855 12.4850805825703 -0.1033587186572309 0 0 0
236 59 2 0.428 1.1871019503998563 6.06859097941598 0.8173005079140006 0 0 1
119 30 2 0.428 -0.6563159814552166 12.25033560588732 2.047779096631371 0 0 0
48 12 2 0.428 3.8237263608106797 6.734901750864722 2.640271109046834 1 0 0
86 22 1 -0.428 4.2798857281269305 8.578600259581071 2.2904874230534618 0 0 0
122 31 1 -0.428 3.8891818878239777 10.804560865200882 5.261852479663557 0 0 0
124 31 2 0.428 3.560385079989847 9.92933451531759 5.206359567089661 0 0 0
97 25 1 -0.428 2.0359191101701977 10.295726327920589 2.2850094992078147 0 0 0
98 25 1 -0.428 2.8786369899226227 11.172724903068008 2.024444189797517 0 0 0
168 42 2 0.428 2.0734423267456963 7.739377358172151 4.50566476207783 0 0 0
126 32 1 -0.428 0.8278256326944315 6.496453443385876 4.2170779774457845 1 0 0
99 25 2 0.428 1.3624398571163199 10.598993587368337 2.980526277670505 0 0 0
121 31 1 -0.428 5.114635724081831 10.776718781080968 4.862955836626959 0 0 0
123 31 2 0.428 5.305155172793452 11.157715547866086 3.993127829786692 0 0 0
100 25 2 0.428 2.6860989295053894 11.570252292598012 1.1613914956853382 0 0 0
177 45 1 -0.428 0.015471654358197084 10.900553614271708 4.060037075115547 0 0 0
223 56 2 0.428 2.099376032862933 8.576093791177078 1.4518350447708346 0 0 1
221 56 1 -0.428 1.9610406287495197 7.877374033747476 0.8254595619547653 0 0 1
178 45 1 -0.428 0.581224023371401 11.70437397924925 4.886189931869498 0 0 0
88 22 2 0.428 3.7239081202320463 9.37921844016317 2.2064440601581943 0 0 0
222 56 1 -0.428 2.587609867530561 8.043333035784588 -0.3301114027369222 0 0 1
166 42 1 -0.428 2.5354964924544188 8.388512899197302 5.096304594722375 0 0 0
165 42 1 -0.428 3.750414256462176 7.979139955811492 5.35030894560369 0 0 0
224 56 2 0.428 3.213729710534956 7.371558559346969 -0.49718845230411834 0 0 1
229 58 1 -0.428 4.960670635375747 12.273011340675422 -0.8489057419849724 0 0 1
231 58 2 0.428 3.9951206478416186 12.292094268104307 -0.7960690402603277 0 0 1
125 32 1 -0.428 -0.07405842276413066 7.265647259154543 4.537338023453904 1 0 0
230 58 1 -0.428 5.438056912661 11.226858504963634 -0.2605088195621613 0 0 1
117 30 1 -0.428 12.657837439809311 12.012504031506815 1.1795870331614502 -1 0 0
127 32 2 0.428 -0.5968936498905875 7.4581514956311565 3.813520412097586 1 0 0
167 42 2 0.428 3.7794735238868817 7.407346705704018 6.117354643700259 0 0 0
232 58 2 0.428 5.6076837871554135 10.484755737096712 -0.8224962832614992 0 0 1
3 1 2 0.428 7.877726017204191 5.551027329004485 1.2899372997161032 0 0 0
7 2 2 0.428 5.619102881525727 11.707644559790127 1.4840775103508923 0 -1 0
85 22 1 -0.428 5.528420632009559 8.850408984235449 2.3329497624473694 0 0 0
20 5 2 0.428 12.565267104356321 10.21658721361345 -0.34757424346394195 -1 0 0
5 2 1 -0.428 5.803573752497937 11.90982549154012 2.3744595692486747 0 -1 0
188 47 2 0.428 5.794899496633702 7.820590987525609 4.788647875800253 0 0 0
102 26 1 -0.428 9.359054316625393 12.685821555059682 0.2291673080719474 0 0 0
179 45 2 0.428 12.82857403066337 10.599476154224629 4.297584633805897 -1 0 0
87 22 2 0.428 6.068835721431732 8.438828445937347 1.6482051074496638 0 0 0
108 27 2 0.428 12.837917131575733 6.534918426113611 1.3186567164792593 0 0 0
172 43 2 0.428 10.671117870340549 6.135802583442422 2.7546077783753757 0 0 0
106 27 1 -0.428 12.274460377554208 6.905832921339869 1.9789490935078562 0 0 0
1 1 1 -0.428 8.030622810396647 6.3504744018277774 0.7676544901213043 0 0 0
169 43 1 -0.428 9.48145335391186 6.888526483524449 4.031824652375824 0 0 0
171 43 2 0.428 8.727580125701952 7.423810871823584 3.807198528147466 0 0 0
2 1 1 -0.428 6.921207876122862 6.975019722980891 0.595127225611984 0 0 0
118 30 1 -0.428 11.634152405877318 11.322848245585972 1.258798287340607 -1 0 0
120 30 2 0.428 10.869914374237029 11.90801499994454 1.0632788192406508 -1 0 0
155 39 2 0.428 7.677571421315021 10.335494732395283 3.044990031613783 0 0 0
153 39 1 -0.428 8.337435748428542 9.99443795734607 3.602705639848316 0 0 0
101 26 1 -0.428 8.641891626061282 12.103574614538609 1.1415179937383724 0 0 0
139 35 2 0.428 10.083512765100199 9.817534736445534 4.26806123193846 0 -1 0
44 11 2 0.428 9.055801467794849 10.277549813485313 0.14853610777437765 0 0 0
107 27 2 0.428 11.254728471183887 8.370435130128055 1.6478100314919493 0 0 0
105 27 1 -0.428 12.097102898667828 8.121016273456627 2.056735664097803 0 0 0
137 35 1 -0.428 11.044262819373719 9.853031731557719 4.52033345193015 0 -1 0
154 39 1 -0.428 8.176599222238556 10.174898026815901 4.928791652807884 0 0 0
144 36 2 0.428 10.711150896794516 11.838951956560107 5.200081136766894 0 -1 0
41 11 1 -0.428 9.687244565833783 8.685480414486136 0.684635370222219 0 0 0
42 11 1 -0.428 9.16917441430209 9.397246731860372 -0.16212553811714703 0 0 0
43 11 2 0.428 9.135643902651667 7.905446562333518 0.7629518493928715 0 0 0
186 47 1 -0.428 6.673244592331803 7.7091213506970035 5.006263124084342 0 0 0
156 39 2 0.428 7.947323377008029 9.404981685286957 5.362449699674564 0 0 0
185 47 1 -0.428 6.878292190528212 7.9227532470458115 6.224603855973687 0 0 0
240 60 2 0.428 10.395064379319827 6.795894385989857 5.655023155472693 0 0 0
176 44 2 0.428 0.4186114385017694 1.6020755991328315 12.571653374581826 1 1 0
173 44 1 -0.428 2.3762598385441907 1.4972171939325851 12.711132716654719 1 1 0
190 48 1 -0.428 4.277723414617232 0.46757382215868293 6.536277806288428 1 1 0
95 24 2 0.428 0.03567859156301456 1.3662895799220598 6.5836596050317775 1 0 0
175 44 2 0.428 2.9030908622944938 1.8853063082891532 12.05971029188633 1 1 0
150 38 1 -0.428 2.3778260520110273 5.397077854481031 11.14468313382838 0 0 0
152 38 2 0.428 2.923852518451588 5.14583500110615 11.830723042537219 0 0 0
129 33 1 -0.428 4.245458094032215 2.5765537430694567 10.720935122938887 0 0 0
130 33 1 -0.428 4.888535505851446 1.524474961514216 10.885383671252999 0 0 0
131 33 2 0.428 4.672873661185655 3.2405430452231894 10.297910549245518 0 0 0
132 33 2 0.428 4.658683399039013 0.7813968640262503 10.258218147163472 0 0 0
67 17 2 0.428 1.256587719670224 2.984482551820983 7.644531561100457 0 0 0
151 38 2 0.428 2.3100294852562753 4.358121836769554 9.573815594170345 0 0 0
149 38 1 -0.428 2.785366136585192 5.1505659294011545 9.972273033277691 0 0 0
65 17 1 -0.428 1.3714306277881052 3.1929864288623033 8.580688399921785 0 0 0
243 61 2 0.428 1.1650598999157435 0.5341331472615392 8.771909997678412 0 1 0
68 17 2 0.428 -0.03245154905798164 2.723160278658592 9.657560851183751 0 0 0
66 17 1 -0.428 0.8353428218425434 2.4072688772741704 9.44340592151859 0 0 0
192 48 2 0.428 5.111944916313157 0.6056001102824022 7.0535749673214685 1 1 0
145 37 1 -0.428 2.99624082168773 5.452277785871575 6.918951082995012 0 0 0
134 34 1 -0.428 6.013953168101871 4.091400675918637 8.955686264547198 0 0 0
241 61 1 -0.428 0.824364244529896 -0.28298680796795794 8.805303774423901 0 1 0
253 64 1 -0.428 -0.6291943387890357 -0.518563679835961 12.175758395378539 1 1 0
148 37 2 0.428 4.6206606685061855 5.485159147733402 8.033974456300953 0 0 0
182 46 1 -0.428 3.816231783206465 -0.3790695503692119 9.206839507272928 0 1 0
147 37 2 0.428 2.250658930073388 6.024695129895659 7.203678939083073 0 0 0
184 46 2 0.428 3.0058950745234596 -0.2912100689725674 9.483073979086647 0 1 0
76 19 2 0.428 7.158590766558174 2.381126310384639 6.257702318048837 0 0 0
254 64 1 -0.428 12.79781778567858 0.6650550811206197 11.938537020502764 0 1 0
94 24 1 -0.428 12.041104348288293 1.764332415168377 6.1740188408576415 0 0 0
209 53 1 -0.428 12.26979794648804 3.605578425687277 10.50626622295513 -1 0 0
196 49 2 0.428 6.094198848527087 2.4366125220755466 11.833928961181275 -1 0 0
93 24 1 -0.428 -0.8081803256015471 1.1661016791109953 6.897333020032522 1 0 0
136 34 2 0.428 6.3805026811922465 3.4184182002195165 8.450779752197214 0 0 0
256 64 2 0.428 11.948264299863704 0.7926298477634679 11.563744996203564 0 1 0
133 34 1 -0.428 6.410353177132389 5.259180466436256 8.695490938213153 0 0 0
193 49 1 -0.428 6.727076452397916 4.094797176419382 12.260144467653904 -1 0 0
195 49 2 0.428 7.626231053763835 4.201052849182914 11.927477377802058 -1 0 0
61 16 1 -0.428 9.186851000941271 1.1430819655031197 10.754804144372685 0 1 -1
63 16 2 0.428 8.423346826826297 0.7877420009301366 11.066015423120183 0 1 -1
62 16 1 -0.428 10.029361032496356 1.3701313247009748 11.721650554067732 0 1 -1
64 16 2 0.428 9.977816831419693 2.254405586749478 12.138961781420472 0 1 -1
96 24 2 0.428 11.704176284162493 2.5261915902479646 6.637556287243574 0 0 0
89 23 1 -0.428 10.96700433443449 4.3283027520752295 7.178277240126279 0 0 0
211 53 2 0.428 11.94552014311593 3.6434602425832194 11.417487086540346 -1 0 0
73 19 1 -0.428 7.641009792960029 1.8385388955610114 7.958258086749813 0 0 0
74 19 1 -0.428 6.748768636916486 2.0580433094539923 7.0545238749120776 0 0 0
210 53 1 -0.428 11.81423955434785 2.7869924707305795 9.6567577039609 -1 0 0
208 52 2 0.428 11.640173118561858 0.21746433280262822 7.61369495910971 0 0 0
207 52 2 0.428 10.385613637525994 0.1422695520778683 9.734443260268584 0 0 0
212 53 2 0.428 11.220412731708759 3.2222440922303726 9.064181897878514 -1 0 0
75 19 2 0.428 7.756363681640378 0.8654568598528531 8.225626357693011 0 0 0
92 23 2 0.428 9.229936567528616 3.9783234170083226 7.040067920091567 0 0 0
205 52 1 -0.428 10.971217172122303 -0.4763914321506481 9.35234698277026 0 0 0
90 23 1 -0.428 9.854805623392247 3.860966152332482 7.626140210323264 0 0 0
91 23 2 0.428 11.122942107185844 5.335691313296362 7.337334778145996 0 0 0
160 40 2 0.428 9.106022062801468 4.382673492509594 9.510670686392347 0 0 0
158 40 1 -0.428 8.766325152165999 4.681736250861052 10.32241147907345 0 0 0
206 52 1 -0.428 11.014157100956883 -0.39317673191051367 8.02528066183749 0 0 0
157 40 1 -0.428 8.575877351146168 5.948642769222465 10.430135731726153 0 0 0
135 34 2 0.428 7.062552906920281 5.554071699384745 9.354865417360731 0 0 0
180 45 2 0.428 1.2714793158785453 11.272817798439482 5.363081779356501 0 0 0
244 61 2 0.428 0.38665699542654264 -0.7399517700041194 10.573939589086155 0 1 0
242 61 1 -0.428 1.1280641380088559 -0.821876315336925 9.973278388764816 0 1 0
146 37 1 -0.428 4.182691693120475 5.921204142009895 7.235458340922609 0 0 0
37 10 1 -0.428 2.2032030530832105 11.633331525395116 12.65527707292359 0 0 -1
39 10 2 0.428 1.5372649906578237 11.034203980598393 12.591674200113667 0 0 -1
35 9 2 0.428 0.23029063770206126 7.061311676731977 6.178702581332185 0 0 0
19 5 2 0.428 0.5170074247260978 8.633496157214898 12.248303343866715 0 0 -1
164 41 2 0.428 0.6803136266054692 6.451745154724521 10.726081027098845 0 0 0
17 5 1 -0.428 0.08942229096499099 9.544081329537088 12.214488471750707 0 0 -1
33 9 1 -0.428 0.1711404333874409 7.041927307197742 7.173440017528494 0 0 0
34 9 1 -0.428 1.22427849711905 7.555825048574922 7.699289079116479 0 0 0
36 9 2 0.428 1.2044145517421416 8.403111714517463 7.874044493966014 0 0 0
247 62 2 0.428 4.8071559394926675 10.565020498301816 6.935684199818169 0 0 0
162 41 1 -0.428 -0.06267259113557999 7.016321972641839 10.590544004089715 0 0 0
181 46 1 -0.428 4.464540177913705 12.4972473971638 9.87947333614446 0 0 0
183 46 2 0.428 4.651976515804625 11.740210365665389 9.421798825945231 0 0 0
248 62 2 0.428 4.817782018119277 9.160889969643737 8.840541129600872 0 0 0
245 62 1 -0.428 4.902115515646546 10.751924689446323 7.933324203031676 0 0 0
216 54 2 0.428 3.2422278184521467 6.981889138969013 9.910707232942316 0 0 0
214 54 1 -0.428 3.627579266795321 7.827660904220721 9.666571508318063 0 0 0
213 54 1 -0.428 3.3456153724520954 8.899996576766231 10.195191648537781 0 0 0
215 54 2 0.428 2.6877014432110893 9.405365104926572 9.757153927069893 0 0 0
58 15 1 -0.428 1.6647388630985311 10.714595989468478 8.011287787546113 1 0 -1
60 15 2 0.428 1.5919522610011008 11.678519632896169 8.076841466933326 1 0 -1
57 15 1 -0.428 1.1569490720358524 10.125105359310936 9.042559495591084 1 0 -1
59 15 2 0.428 0.1446779486030756 10.130461627285108 8.95201355125347 1 0 -1
252 63 2 0.428 5.107620435042084 8.83007999453662 11.152195806835783 0 0 0
246 62 1 -0.428 5.505664375419907 9.793733368816847 8.606657018875486 0 0 0
163 41 2 0.428 -0.6665418245139642 6.973766405524931 8.799690320830171 0 0 0
250 63 1 -0.428 5.810399515299296 9.061597554552367 11.764797878858401 0 0 0
161 41 1 -0.428 12.837144368504418 6.625200028879478 9.702287443892025 -1 0 0
18 5 1 -0.428 12.602731681959966 9.677767933244626 12.605675954694545 -1 0 -1
4 1 2 0.428 6.78363804520261 7.239520683441736 -0.2924463485336267 0 0 0
138 35 1 -0.428 11.303544644506209 10.016892789479131 5.752044132201178 0 -1 0
227 57 2 0.428 10.196520226333437 7.996356617025581 12.729380299781399 -1 0 0
50 13 1 -0.428 7.320889815834546 -0.6904678869331413 11.465217752588309 0 1 -1
159 40 2 0.428 9.347053509021778 6.466165509329972 10.877922031580468 0 0 0
255 64 2 0.428 -0.7296500990353039 -0.7468647702336885 -0.6036936685659477 1 1 1
111 28 2 0.428 9.133047684373551 12.411934589165911 7.703964112794349 0 0 0
112 28 2 0.428 6.6685588668311935 11.848513298838018 7.944791633772677 0 0 0
187 47 2 0.428 7.020410246364614 7.152439692274472 6.654307625145993 0 0 0
52 13 2 0.428 6.61358865767804 12.534228794205351 11.876441363786173 0 0 -1
110 28 1 -0.428 7.297063061863353 12.52549212443804 8.044273340757389 0 0 0
228 57 2 0.428 12.017604340117535 6.85691882391 11.643354683334419 -1 0 0
140 35 2 0.428 11.519748658569902 9.235310940077088 6.27797221527665 0 -1 0
51 13 2 0.428 8.279668968157326 11.892444537668782 10.354324477706088 0 0 -1
49 13 1 -0.428 8.246089335968316 12.174129497264518 11.201621397211314 0 0 -1
199 50 2 0.428 12.510003456036042 9.76311255125995 10.78744004407112 0 -1 0
200 50 2 0.428 11.741259535712384 11.293646089174464 9.12779706623308 0 -1 0
109 28 1 -0.428 8.452721950189092 12.054234833401432 8.300245357070917 0 0 0
198 50 1 -0.428 12.160272564959165 10.469586042064938 9.041225264466966 0 -1 0
197 50 1 -0.428 11.846106954696628 9.764850738671955 10.043798853487042 0 -1 0
202 51 1 -0.428 9.15804180033006 9.176001902718829 9.910665830741983 0 -1 0
239 60 2 0.428 10.021843255125825 7.860382824414636 7.928061715330809 0 0 0
237 60 1 -0.428 10.114676025006247 7.037140277353663 7.474314968506741 0 0 0
238 60 1 -0.428 10.823846759667738 7.067584457934018 6.438465783057842 0 0 0
226 57 1 -0.428 11.335833751616502 6.64686990027542 12.267687022394266 -1 0 0
225 57 1 -0.428 10.301371085984515 7.3595540450780526 12.05906198093242 -1 0 0
204 51 2 0.428 10.120491609135097 9.355193731174015 10.25875637978238 0 -1 0
201 51 1 -0.428 8.937148915446054 9.325629653389978 8.643058272666737 0 -1 0
203 51 2 0.428 8.497907462015931 10.072978049282112 8.469143805976948 0 -1 0
249 63 1 -0.428 6.909994420698073 8.359835235859649 11.649347521500564 0 0 0
251 63 2 0.428 7.588776887728526 8.829267194276005 11.1138820928404 0 0 0

Velocities

54 -0.0011610136735009792 0.001331902155371493 -0.005092175376807941
71 0.036088525250076414 0.01368366283682523 0.008387493628899437
11 -0.01060405018028104 -0.019594432369256395 -0.008024270176742763
9 -0.0025576391708906237 0.009102980663990175 -0.004257404862160634
56 -0.005739779091854066 -0.004762094598303239 0.0046829703772035625
12 -0.007104114317945965 0.020872041094853102 0.02024390071295843
10 0.0023942083755789873 -0.004682232809386571 0.006048956567440343
45 0.005815909747122709 -0.002223531940201492 -0.0016837366883624958
47 -0.009824929814753991 -0.003527924647328275 -0.02036315474012974
70 0.004975674343217966 0.0030845317591756136 0.002492431733894555
233 0.0036378644662693233 -0.002810269309388979 -0.00030602536105502835
79 -0.0075903384194869515 -0.011646725580686228 -0.011932432626871256
69 -0.006168388210008613 -0.003810897074867402 -0.0045829240247211005
218 0.003030024260159433 -0.0015335300677166634 -0.0029039730697275373
83 -0.0029936074795926253 0.015915029662871984 -0.007094004648839302
46 0.004229746645019492 0.002070137994838759 -0.003919165102583044
189 0.0026015604245383573 0.0010518951995954642 0.0017977033027621971
220 0.005420818549245458 -0.010485850889710996 0.0027670284403652394
81 -0.00032030652079461394 -0.002413482506611887 0.0011795776692858026
82 0.005108460597011434 -0.0016965605549900736 0.001904495472801759
234 0.0019369252149491285 0.005297678511299865 -0.00509085532462074
128 0.0027776515377759 0.01896716661988932 -0.01223506292009891
77 0.0005772095976803287 0.0027718149569354155 0.0036825375843595855
235 -0.014587092154082078 0.010192164651371913 -0.00010945623110388235
84 -0.008792996252472826 -0.013166990844626945 -0.0006966365519363964
40 0.02171869103091245 -0.011242030785448354 0.011455885528516662
6 0.0036845612699010865 0.0016331048249894422 0.0006029389225409686
191 -0.0037502892464243627 -0.013522634909348167 0.003438250794504299
80 -0.007651368442977751 0.008643720822907711 0.02225063113060949
53 0.002245841337204283 0.0053424894333685465 0.0004560678065475905
217 -0.00427572583593325 -0.003934433951025675 -0.0024286905497965167
174 -0.000368333313119797 0.0019036251271725877 0.0026206645025445615
78 -0.0014532391886616237 -0.002598433482924801 0.0031768700427310353
219 -0.005052559387739975 -0.001309587753574084 -0.02048818192172256
28 -0.008664255247854037 -0.00442480764786578 0.0317742192824904
55 0.01063688352745292 -0.014311776637481996 0.010725959148041376
16 -0.021785606692650034 0.015129516663113166 -0.020648741164154404
26 0.0009744506668329693 -0.0003288491263257472 -0.0038256082248297645
25 -0.007835409325025234 0.004792280656365496 0.003421319758335157
24 0.005315435371688666 -0.004499369326268065 0.00818192596482914
32 -0.025918515903056397 0.002803536991257174 -0.0026276450205783906
27 0.0027771116859110763 -0.0017509287766276265 0.0020474501614102182
14 0.004497705719773066 -0.0031261747330671593 0.004532303784737658
15 0.02165944995416203 0.00828425227300153 0.0014840544138449577
13 -0.001617173086180508 -0.007859580500252018 -0.00016904479662730931
115 0.01748964197841574 -0.006157116972346058 -0.00865514549788627
113 -0.003787926773661554 -0.0013127825643720976 0.002789256502720744
114 -0.00017538558561595277 -0.007243166427336091 -0.0009844954945828531
116 -0.00040555243593745627 -0.0009951645743136101 -0.006402886203945278
29 -0.0021862232635749173 -0.002792124193409319 -0.003336069849151461
31 0.011824616965937776 -0.01269866996543415 0.012630236409459535
143 -0.0037447764068209823 0.007895392543082146 -0.0002869654628075983
141 0.005927248201906059 -0.005292670303690012 -8.29821026372637e-06
22 -0.0056525645706069876 0.001027812269273532 -0.0030912240620185956
8 -0.005112496213919108 -0.006441217635069653 -0.007871696040706994
142 0.0011106759669344422 -0.00011341694247649268 -0.00390927090837126
21 -0.0018182896130544619 -0.003913175147577931 -0.005996547095613767
30 0.006358320155775651 -0.0004749306790536784 0.0009233298273316587
170 0.005492356716557618 0.007212850677878952 0.0010822564498465476
103 0.007114990596996098 -0.0010169438611164127 -0.017899565791496777
104 0.007104778390997974 0.0017030657412165993 0.022674437138421853
23 -0.01140890825554347 -0.012635990100945049 0.01400495398822151
194 0.0058167100485308695 -0.002292180945652703 0.0020049331415301973
72 -0.000826449166647727 -0.001891157791996782 -0.0040853172234604105
38 -0.0027615732745697244 0.0017208629732291586 0.0061709001683136625
236 -0.00738346387344834 -0.02493061525236593 0.018833689854471782
119 0.011518051607106495 0.01317666672526709 0.03453438798086183
48 0.00595944734057888 0.008760282078105766 0.007146664472160584
86 -0.006043097768379473 6.359109672549465e-05 -0.0014611513365962157
122 0.0029035253531088734 -0.0005426126934324931 -0.002361071196080827
124 -0.016488872282473734 0.008158501698951087 -0.0023517766875891136
97 -0.006870686967944071 -0.002956652361349294 0.006846192910499328
98 0.005140370580991038 0.0017879352105398488 -0.012056374922033077
168 -0.003726649476848794 -0.00483616911227309 -0.016083864437231667
126 -0.005588635445579386 0.003798335139444109 -0.0006007557792805811
99 0.008028836544521587 -0.0007873395241051768 -0.03271705888665485
121 0.0019221723022693794 0.006251684744321105 -0.0004319064839268235
123 -0.017327777614865512 -0.011734371741309209 0.01278913302979475
100 0.003083182312969861 0.001984384692387108 0.006551529644149466
177 -0.0019116831355542956 -0.0005632646481682209 0.002319876790852009
223 0.006214934428887306 -0.003390136017310202 0.014829493657691087
221 0.00285948748174237 -0.006371179828039343 -0.0038167854462111865
178 0.0016931990532023076 -0.0020515573266033527 -0.0026966904168356023
88 0.004296498660881441 -0.004783784574589166 -0.01650303386414103
222 0.0016493270922091493 0.0047585714131834125 0.0029368549419467593
166 -0.004735643516491427 0.004800600597254855 -9.876064506090534e-05
165 0.0033654385225671507 -0.008610445877248558 0.0052486353523531065
224 0.007035874625164 0.01495011958935449 -0.0007134412109158561
229 -0.00035532970404817776 0.0031075345425704117 0.0002782477077720302
231 -0.008317570170375614 0.01151337458766073 0.011276640831976248
125 0.004899163568344004 -0.0061790959373217505 -0.0017566874091848974
230 0.0015127934390070695 -0.0012100844699203287 -0.0012760336327669844
117 -0.003012166942220062 0.0003329749068857989 -0.0026233619687747473
127 -0.0034894904924572426 0.013573255292167944 0.004991916766787709
167 -0.0125780786544655 0.01296715463662927 -0.011608609713500227
232 -0.006471278511780729 -0.0016050376030307884 -0.004219159709384678
3 -0.016796620311355332 0.0016818420214158014 0.007181820902928667
7 0.005959448067702176 0.021054275467802853 0.013089542178405916
85 0.00021047408975131133 0.0008710183660564114 0.0035187256242182633
20 -0.0013518942640904918 -0.0034966212203316385 0.002200354085814078
5 -0.0020923400941057287 4.651841837076878e-05 -0.003066555756977757
188 -0.021913932103852243 0.014381709738631437 -0.00320645679311121
102 -0.003722902662700658 -0.001751033662122708 -0.0070578874768911105
179 0.012016615486866736 0.003529892621461442 -0.004732992725011824
87 -0.014129755445721332 -0.001772349471835465 0.010259593770084561
108 0.034784178560915015 -0.0056615660712532375 -0.008177205146371077
172 -0.02437061426190039 0.0009255227874230074 0.008922694282952892
106 -0.00423611998309873 -0.002003531976035345 -0.0006389209277882747
1 0.0031480960336662824 -0.002578123856205241 0.0013870386264233704
169 -0.005574310762935815 0.0007518212267113496 -0.001814122578157356
171 0.007584620887778037 7.830271713534977e-06 -0.006315368259302242
2 -0.0008382277238611806 4.239549540821377e-05 -0.007337583386088689
118 0.0016673921866743862 0.005019810545064611 0.0009555710092573574
120 -0.0056377655509820285 0.022202303930123797 -0.0004268103540979859
155 0.0008691075203018799 0.0006508929460711492 0.0051884377826916525
153 -0.004141176911589904 0.0025939586811045143 -0.0002975171202992506
101 -0.0009850969961939684 -0.00016390191050003628 -0.0006866667296955837
139 -0.010022445965745176 0.0048744233000376 -0.007552311245551557
44 0.00482615589020271 -0.005859784368216843 -0.00425743852337415
107 0.02220059066841548 -0.005078052551172899 0.00821981536235019
105 -0.0033222663775466163 -0.00019327070751803312 -0.00019833195504982823
137 -0.0035811740014362373 0.008167113004347058 -0.0037214854518927767
154 0.0004654961766838169 0.0014365894451730634 -0.0013774083598989794
144 -0.007620970207591681 0.005510014699007358 -0.01893580827451589
41 0.002500402185910103 -0.003031289455901657 0.00709162335479068
42 0.0029314739968787315 0.00088853322602447 -0.004975192479793424
43 0.0013533700981309146 -0.011047321883864905 0.009543878799791594
186 5.594330889436128e-05 -0.004340641232473148 -0.004991118392441702
156 0.0009335423864846254 -0.0008975402039932138 0.01073154939260554
185 0.004707119844488541 0.006001600750757323 0.006072685067403492
240 0.00920818170644573 -0.005115064612383775 0.0009042588532719175
176 -0.022539709565014505 -0.016846628417903135 -0.009546537185620887
173 -0.00616132247830044 0.0007878584576767306 0.001895201521264317
190 -0.0018268014288946408 -0.008792094188561791 -0.00044585199679328613
95 -0.009727941641941839 -0.002024686447146285 0.0026045483957367658
175 0.0034555074841407223 -0.004359955720421268 0.007899303376858414
150 0.004590217422324953 0.0016605786000424016 0.0005861841261894682
152 -0.00847305698549736 -0.006190284632087516 -0.007905720049450816
129 -0.003624260977440104 -0.006144370478831352 0.005396817853852591
130 -0.005922479737372988 0.0062806349535077756 0.006435582943712037
131 0.003819619293757835 0.0006801272402784268 -0.0036037531023221767
132 0.004975617745792904 -0.004309450202260908 -0.021889775290659594